ITEM: TIMESTEP
0
ITEM: NUMBER OF ATOMS
4000
ITEM: BOX BOUNDS pp pp pp
-0.784152 57.894932
-0.784152 57.894932
-0.784152 57.894932
ITEM: ATOMS id type xu yu zu
2440 1 6.323660 -0.146432 1.049818
350 1 1.805216 1.155844 63.209060
1113 1 2.258032 -113.847300 60.445200
2280 1 -55.201720 5.039786 5.971590
921 1 5.599596 2.974113 61.971800
3549 1 6.068796 4.777578 58.484080
2525 1 -56.094220 -59.405820 -57.149920
725 1 58.087300 63.688120 117.523380
1194 1 68.767380 1.226876 59.115460
3855 1 187.805460 121.779500 59.547260
981 1 13.426634 58.956340 58.733640
654 1 67.572280 118.755540 62.908840
2702 1 8.725114 63.515060 61.615140
3723 1 70.522800 62.334240 4.645114
3681 1 7.322444 -53.688380 64.699960
2305 1 -58.322240 12.189748 -56.731040
1506 1 6.161310 10.617690 178.579900
2290 1 177.864200 67.562420 2.331489
1191 1 3.444574 70.975000 62.998260
1758 1 4.925580 6.608546 61.742640
3702 1 116.925660 124.444080 5.029450
3897 1 61.683820 65.234440 -58.804020
1476 1 -0.586901 68.328780 58.380380
770 1 8.167446 7.998466 59.953900
2642 1 13.643350 13.282236 5.458054
472 1 7.055442 71.377560 5.020236
124 1 8.665138 71.927000 -0.054931
3376 1 125.090760 8.303174 63.453520
724 1 10.022112 69.408620 61.369320
1185 1 128.898760 -51.263840 62.020760
380 1 71.944000 8.584116 -0.125967
3323 1 11.295786 68.775880 64.596260
2461 1 13.779418 -51.253300 6.320124
1315 1 12.268832 71.791000 60.131040
3191 1 -44.853820 127.846800 62.037760
1785 1 58.214800 63.092100 11.818094
2339 1 -56.362140 1.915948 72.181660
2671 1 123.679420 3.405440 9.961524
833 1 5.626660 119.734740 13.194176
3728 1 63.012880 -0.008437 69.563660
309 1 2.853691 119.929900 -108.286940
2061 1 122.597200 1.694319 6.651046
3345 1 12.366174 -58.366780 6.929506
2820 1 10.688546 4.057458 13.681464
3040 1 69.302540 1.445816 69.861160
1286 1 10.149204 62.091480 66.499580
2499 1 9.152902 64.189280 245.233160
68 1 -50.893240 59.241600 8.412518
3134 1 131.050960 3.819934 128.002860
3481 1 5.222672 -46.019680 8.449306
1055 1 116.918180 8.075782 67.238740
2982 1 -55.355740 11.591960 13.762962
623 1 2.923283 128.103500 68.776560
2527 1 -58.443960 69.704760 65.666240
540 1 59.071940 -50.761660 71.980040
796 1 -58.670060 69.945140 70.904280
3403 1 119.596360 124.088440 -48.404440
3656 1 123.675680 7.913534 68.771120
3886 1 4.413506 -109.561260 12.895860
1061 1 58.453480 13.679356 9.439488
293 1 4.761258 67.172100 65.747840
1389 1 11.292624 72.241840 129.411820
1010 1 71.282020 7.453446 69.262420
3414 1 10.571858 -51.966960 -51.298860
187 1 65.365000 -47.032880 11.526442
2831 1 129.070120 11.136190 9.632574
1626 1 8.294062 68.919020 66.995300
2533 1 -48.931100 13.625636 7.962018
3099 1 0.130745 3.436720 -97.987320
351 1 6.490804 120.978800 135.753160
2139 1 -56.205400 59.362300 17.232424
753 1 2.424747 122.516280 131.461680
3141 1 6.463026 -58.776480 136.152660
2218 1 -0.063667 120.019320 -42.823000
2113 1 121.344980 5.683882 75.868620
47 1 66.669240 0.026581 73.935040
2385 1 7.669142 6.091032 72.948360
2269 1 127.216100 120.500080 -41.514340
3626 1 -44.933040 58.378340 -38.715120
807 1 -105.987520 176.606880 14.978190
1992 1 9.786254 176.031940 138.456160
2155 1 -110.950840 130.486560 132.689080
1534 1 -59.438120 6.584202 16.304326
993 1 -53.215100 10.417702 135.264580
1385 1 -56.645020 124.438980 -39.145900
1171 1 -0.146728 -105.141260 74.555540
1041 1 2.479334 8.946692 74.458300
3645 1 129.016400 8.130352 73.809920
1952 1 6.847906 68.355640 14.642372
2648 1 -49.627420 124.427080 -99.881120
2825 1 69.020000 127.278660 -37.863760
3979 1 68.177140 69.608200 75.779200
2206 1 2.510373 58.776480 86.225020
3508 1 4.250442 58.308980 24.174204
656 1 62.720140 5.333206 22.225970
914 1 -117.099400 -54.306840 27.963096
3137 1 63.836700 61.276500 84.878620
2100 1 123.579120 65.113740 25.252786
3219 1 60.221140 2.729761 -94.313960
2425 1 61.668860 5.411304 84.448860
684 1 4.877028 1.770431 -154.582360
2154 1 66.676040 -54.510840 27.886324
3498 1 -48.092660 -53.043400 25.825482
322 1 -47.634000 60.292200 -31.693474
3543 1 8.467904 2.972389 82.828080
388 1 -103.950920 1.990710 141.722880
741 1 -50.071800 65.041660 -36.005320
1501 1 9.244566 116.674400 83.437700
2074 1 70.729180 62.021780 21.277778
1541 1 118.194880 65.278300 23.018306
3110 1 59.099820 69.861840 -95.375100
393 1 4.748746 -47.548660 86.134240
960 1 1.786482 71.911020 85.301240
2520 1 62.197220 67.738540 82.420760
3548 1 123.784820 127.722360 80.472900
2673 1 117.424440 126.398400 85.350540
2916 1 68.173060 66.783820 -30.315216
756 1 -45.979900 6.801938 -35.687420
1144 1 -48.338480 67.801100 -34.414120
3938 1 7.236016 127.316060 25.285528
2393 1 71.899120 8.208586 202.537320
317 1 13.743378 127.928060 81.190980
2899 1 69.977780 70.642140 -33.440394
3401 1 8.494832 72.428160 -91.139380
302 1 13.719850 69.826140 -30.380428
3818 1 3.213503 61.243180 32.725272
2398 1 -52.317500 60.322120 29.968382
1763 1 0.622734 59.326940 -82.188200
2850 1 62.790520 64.740080 32.017188
1806 1 117.285380 121.876740 34.623900
495 1 5.338340 58.545620 -24.184948
983 1 62.715380 -113.251280 -29.866994
150 1 -56.328820 -0.723792 90.170720
1780 1 66.102800 123.713080 30.886790
2983 1 69.718020 180.947660 88.574420
1005 1 127.114100 64.049880 -24.489486
2844 1 187.383180 59.523120 89.295560
2230 1 182.700700 62.391020 -83.937160
3788 1 13.533428 121.499000 33.529576
2451 1 125.611300 59.371480 -25.800900
995 1 2.024187 7.000124 -29.476130
2277 1 58.072000 72.382260 -84.608660
2112 1 2.724250 -164.962900 148.198180
3649 1 4.589558 68.865300 33.928532
3550 1 -58.020320 125.102660 150.037240
493 1 58.485100 68.874480 -23.276366
3208 1 5.556586 66.598180 28.742376
878 1 -115.008740 12.732048 35.723460
3708 1 71.258900 6.998866 -81.600340
3513 1 128.069500 71.475480 91.094160
2913 1 7.828262 127.315380 32.388774
3328 1 123.999020 65.834200 34.552840
957 1 8.248910 70.148460 87.678860
420 1 10.011470 9.431770 -81.704040
506 1 11.856650 8.444444 -26.087078
3128 1 130.852060 70.570740 34.855780
3179 1 7.462932 -46.076800 35.137640
579 1 60.673340 60.008980 97.837380
2095 1 -59.332380 63.984940 -75.651360
1853 1 -117.587640 60.128660 -75.181140
2669 1 5.048354 2.720401 -18.130228
3992 1 64.993720 118.257440 37.751900
751 1 61.773240 62.764680 35.935620
2323 1 2.726188 4.707946 -16.007608
37 1 -58.873380 5.054066 -79.269980
1667 1 130.374360 4.069562 -18.473186
3231 1 65.537040 121.601340 37.162340
2299 1 12.536888 0.851918 39.423000
2973 1 9.418884 2.412739 39.971080
888 1 -50.981300 5.531392 41.023380
188 1 -48.074300 4.849250 96.582780
515 1 68.836740 0.165123 36.470440
2382 1 7.107598 58.324280 42.270160
1739 1 -47.579940 5.378358 42.787980
3726 1 72.550220 1.423774 -22.685548
2355 1 62.203000 10.144988 -17.189312
1960 1 -58.565680 13.821544 96.981940
3588 1 63.896540 68.474300 -20.753872
3296 1 61.049040 66.121160 -22.514732
1546 1 -116.250760 68.639880 156.146360
1088 1 62.230540 72.515540 -77.149400
2450 1 -54.967460 6.585290 39.425720
2353 1 12.100022 11.007772 38.057900
973 1 -50.818440 7.480408 37.809700
3746 1 69.714280 70.199460 41.684340
1902 1 -50.399900 11.693960 97.291340
2731 1 -47.959040 -50.794640 40.220640
1421 1 65.782520 69.106360 -16.951550
1162 1 -0.018769 4.838574 104.000220
917 1 3.078982 59.797160 44.321720
2796 1 4.854792 62.599780 -12.354104
238 1 64.943400 65.125980 -10.517764
56 1 -58.608180 1.024311 104.508520
2483 1 59.230380 1.501590 50.235680
1320 1 6.508314 117.590700 -12.549128
3861 1 -54.204500 1.160825 -9.061000
875 1 124.347860 61.471660 43.700880
368 1 -47.789720 -112.104800 109.034600
3144 1 126.341620 2.725294 -11.730918
3592 1 12.891406 58.254580 104.768620
2386 1 71.594820 121.192660 46.387560
107 1 67.666460 0.124734 -9.319468
1668 1 -106.647800 59.616280 -15.201944
286 1 -50.831360 -114.236940 -67.020120
777 1 5.953400 10.353748 50.084380
2180 1 1.725531 124.354320 47.447680
1575 1 -57.444360 8.291206 43.598200
2883 1 119.840140 69.015580 -9.925008
999 1 116.969520 13.612104 -14.830426
528 1 64.248100 13.105776 47.646580
3187 1 61.890880 -47.432380 103.859800
2457 1 5.113532 -51.174760 -73.131620
3596 1 64.937960 71.657040 43.964380
421 1 -0.178258 67.314560 -8.651980
3178 1 59.847820 130.953720 164.970720
310 1 -47.815560 -51.424660 -12.281344
1991 1 68.935000 129.414880 103.890740
2250 1 130.027900 68.971720 -11.782258
3122 1 -51.192780 -48.478560 46.891780
3679 1 -49.841280 8.249828 -14.686844
3838 1 130.591280 125.754780 -14.960306
2602 1 71.761420 66.406080 -9.426330
2239 1 121.198780 59.831160 -5.524218
3289 1 122.693080 123.439720 54.763800
2360 1 117.575060 1.220807 -60.381620
3594 1 176.983260 63.896880 50.704540
1078 1 4.196416 4.291616 -7.203274
2728 1 118.262200 -54.702940 112.496480
2829 1 62.052040 -55.585580 56.316240
3151 1 70.567000 1.655865 109.921320
615 1 7.436820 2.949803 -61.883740
1738 1 9.131040 5.967034 -2.130219
2281 1 -47.670380 -113.571560 -4.772546
3378 1 129.262560 -58.078800 55.491400
2701 1 8.879746 -58.202900 -64.137260
3027 1 72.358800 5.605546 -2.978417
2024 1 124.877240 123.746400 -6.548672
1707 1 64.822360 71.284060 55.642020
1708 1 62.789840 72.407080 -7.850124
2665 1 62.006820 10.728462 53.852600
3851 1 -0.401509 69.459280 54.450660
2493 1 122.937200 9.211484 -1.850705
941 1 1.147531 7.460348 -3.414858
1277 1 -57.472240 72.279920 -62.452560
571 1 -54.966100 7.487072 51.531420
3303 1 0.231753 -104.675800 109.573500
1542 1 61.418620 69.975740 -0.813372
205 1 68.414120 10.809722 115.073000
2384 1 71.471740 12.309904 54.896400
1097 1 66.589000 13.115330 -6.699462
1523 1 65.346980 9.412220 112.232640
1344 1 -47.852620 -50.843600 53.960380
1972 1 -45.458000 69.321240 109.764580
2807 1 68.253300 127.386440 -7.576390
621 1 -57.579000 19.770354 -56.933340
2643 1 0.427448 16.289060 2.540446
294 1 -56.611020 18.271736 5.593238
3852 1 62.734420 15.398906 64.285500
1146 1 4.695978 18.071884 3.113625
1012 1 3.930366 18.498550 -0.292857
2857 1 121.024700 73.205400 1.569301
1339 1 59.323880 14.969996 -0.553112
6 1 59.071600 -44.127580 -111.637300
1865 1 -109.050240 19.428076 -0.382129
3170 1 68.834360 -43.841640 -54.693420
1874 1 10.398050 16.535934 58.851960
2264 1 -45.876200 76.890660 2.484540
2042 1 13.642942 -39.081300 -111.416300
978 1 9.444214 19.195176 3.307486
136 1 65.784220 74.461020 2.233263
3797 1 70.781540 -38.755240 58.175020
3302 1 0.465134 -30.903756 -53.912100
3445 1 63.820040 -35.743180 1.548792
3767 1 121.488460 25.177034 4.812734
156 1 2.474901 85.940440 118.243840
3438 1 0.644283 81.443940 -52.414060
1063 1 -56.986040 24.187260 -55.897360
2971 1 3.910986 138.769640 63.185600
1417 1 64.485080 27.988188 -56.130600
1807 1 0.772514 82.153520 -59.293620
1175 1 -0.760053 84.791920 118.370320
1252 1 67.927580 22.435512 1.232554
2997 1 9.881658 86.849600 59.998780
1863 1 -106.137120 22.482942 63.675540
2920 1 66.136800 80.708520 63.879200
3218 1 71.576460 -36.077740 2.053036
2477 1 -50.182640 83.847400 61.791940
20 1 12.193454 -32.560984 120.693200
3058 1 125.036020 25.222152 58.281780
543 1 69.077800 -33.096688 6.340932
739 1 7.157068 27.794762 -53.128060
2989 1 61.341780 132.568040 71.218100
3449 1 61.935080 -42.801580 8.917044
573 1 6.233764 14.990362 11.048300
1409 1 62.971400 -39.214920 10.813904
2972 1 5.213866 19.585802 124.528060
3415 1 -116.023640 78.897340 -49.691000
3119 1 -58.687740 17.257074 -47.713900
1050 1 58.162440 -41.305580 -109.684340
1512 1 67.308440 15.300986 13.449278
2182 1 7.588698 74.627280 6.839134
2460 1 10.197654 78.343480 -51.486200
980 1 12.187028 74.981900 6.661620
3935 1 68.368900 16.660850 68.605200
1966 1 9.840688 -38.834460 11.950150
1328 1 130.026880 20.447872 -49.087840
1430 1 12.935912 75.550720 69.680620
857 1 72.475420 -38.798760 13.346530
2719 1 3.376050 27.933142 66.100420
3976 1 -57.320940 86.169940 10.832842
591 1 5.064130 27.867556 70.019600
3763 1 63.003020 24.550380 71.090940
2735 1 1.286580 22.664910 71.803240
2115 1 62.395780 -35.572160 8.628316
1280 1 -52.190340 -92.400780 66.066420
3073 1 69.941060 28.182736 -46.864580
1998 1 -48.725400 81.625160 68.077860
1939 1 12.204130 25.633790 68.440300
1172 1 7.909046 84.164280 128.452000
2233 1 6.877690 -36.851240 127.881820
371 1 11.185354 25.193660 13.856428
3193 1 72.390420 -35.313760 7.153804
3494 1 66.847400 28.272156 -44.877280
2076 1 58.897860 72.979640 -98.552740
2141 1 3.303437 -43.800840 75.168900
3905 1 3.972492 131.305620 78.931340
1964 1 122.713480 17.243202 14.548260
3737 1 58.339580 75.295040 -43.582900
781 1 4.918950 20.755640 77.565220
3329 1 1.194794 19.825740 75.731600
338 1 -56.806520 -41.390920 -38.640320
159 1 -53.336480 -37.803240 -44.419980
2703 1 2.562573 18.887102 72.699480
3597 1 10.960988 131.705460 75.851280
408 1 67.056840 18.826684 16.627360
3698 1 69.869660 78.890200 -96.153360
961 1 69.929840 -41.147480 14.625508
3121 1 69.225360 17.584358 18.940788
1988 1 13.014962 19.475540 -41.792460
2684 1 7.510498 14.067806 77.630500
558 1 5.621356 24.578940 18.691534
879 1 -0.088319 27.435858 19.349740
582 1 0.975168 25.949752 133.149440
3112 1 61.233320 81.417420 75.042760
3484 1 60.140220 82.336780 19.740468
2515 1 -55.467600 86.126420 18.201390
3274 1 122.359880 -31.539080 73.620200
3703 1 65.198060 -31.199522 78.957860
2618 1 9.662868 82.715200 17.385152
48 1 13.866832 27.566758 20.583634
2587 1 11.135612 21.757756 14.481484
2080 1 125.547380 -36.886600 78.419640
2185 1 12.530428 26.066270 75.851620
1481 1 129.792280 -34.960500 20.305752
497 1 6.968708 24.087640 -44.145940
3794 1 125.200580 27.300844 17.271966
2843 1 68.858840 26.982842 19.868240
2085 1 63.545320 -43.672660 -30.634918
143 1 -56.427420 134.195280 85.136000
3942 1 61.723260 -37.975280 -36.497980
1148 1 63.889740 136.097920 24.108346
1752 1 -56.448500 137.986620 143.265800
2622 1 -58.568740 74.030580 82.992300
1332 1 -54.703960 73.849020 -34.618120
1671 1 -49.694740 17.188190 144.664900
254 1 6.997404 -44.408420 22.582426
2368 1 13.173470 134.847740 80.631000
1978 1 8.230244 20.976402 85.858840
3297 1 69.659200 74.624560 -92.750980
530 1 71.769240 78.690620 24.195046
950 1 8.338126 20.259580 -35.169260
2075 1 12.546816 18.826820 -31.001336
2837 1 69.022380 73.295160 -96.041500
2600 1 124.562400 76.551000 -37.445560
270 1 0.387964 23.028778 23.107318
3725 1 178.134160 85.015640 26.772552
802 1 4.898074 23.918354 86.585760
922 1 -58.107700 -31.248720 -35.838380
2625 1 -54.999760 82.454760 24.759140
3987 1 62.054080 84.432200 -36.739040
2138 1 13.309674 26.419734 -34.835720
3555 1 125.577640 -33.124398 87.016200
1698 1 -48.221520 145.232700 -32.190078
1085 1 70.046800 -35.625540 27.950992
1079 1 7.516040 85.764320 24.524608
2743 1 10.479956 23.470676 -34.857480
381 1 6.945282 -93.485720 140.026960
3001 1 1.408940 -97.573200 -29.116750
2395 1 118.092880 20.837478 33.036984
3590 1 62.468880 17.949960 90.633460
2734 1 6.531366 -41.424240 34.252620
2900 1 60.810700 133.135840 34.042500
1398 1 4.563004 14.015616 90.833040
1747 1 1.746515 74.008480 -28.505634
500 1 5.020032 18.764668 -30.099180
2696 1 9.802132 -42.711820 33.391876
3917 1 10.578726 -38.580140 -22.953706
687 1 7.959808 18.657330 -86.802680
2484 1 66.769880 73.037780 30.880160
3908 1 7.873788 79.773860 33.490748
3061 1 11.171516 14.770042 -29.683836
3614 1 70.556460 18.827398 -26.163000
460 1 4.255678 82.053900 33.296846
3671 1 118.162240 140.610060 -29.923196
481 1 0.135664 -93.048140 -84.523660
1995 1 63.949920 144.912420 28.807044
1815 1 0.399578 86.773780 29.009616
3400 1 61.431200 -32.216598 -26.916644
2293 1 8.289064 -35.586100 30.429456
2635 1 11.149824 84.729700 -87.140300
1748 1 129.008920 22.909880 31.709624
3819 1 10.670696 144.213720 33.540354
2732 1 7.118410 84.366580 32.550682
3607 1 2.490871 74.546020 37.510500
3477 1 123.620600 20.676828 -21.979538
72 1 5.335314 -41.012840 -19.421786
39 1 116.651280 76.977700 -19.946406
711 1 2.026546 17.015300 -16.891574
790 1 2.412630 19.834988 95.090520
2300 1 -103.690820 13.899880 -17.203830
2562 1 11.124562 -41.552760 -18.859426
1900 1 67.004820 14.794080 -75.933220
947 1 -46.736400 -38.138140 39.401240
2707 1 -50.212900 -41.950900 37.140240
1639 1 8.218072 19.277252 41.392620
202 1 10.730264 -103.144440 36.514980
3247 1 -44.852800 73.702820 -138.578560
114 1 1.614191 23.834952 36.010420
1372 1 119.115940 -32.084372 40.207380
3766 1 178.080440 -37.247680 39.665420
3559 1 63.606860 23.868850 96.367220
3084 1 -0.266197 -34.960840 41.821700
303 1 -55.103800 -34.349180 41.602740
94 1 5.174018 80.075780 -17.863124
551 1 5.862892 26.614452 39.667800
1920 1 62.320640 85.554540 -22.114450
1460 1 -51.095540 85.128860 95.137440
3398 1 72.529820 24.552114 38.179280
3358 1 10.320802 23.794050 36.342600
3542 1 -48.731180 26.061510 97.934960
2685 1 128.604320 145.473760 36.439160
584 1 12.418840 86.732640 -18.175074
3093 1 8.879814 22.495182 98.047500
2756 1 12.553276 23.868578 100.273140
3995 1 66.763080 26.263164 101.112600
492 1 0.604000 -41.590160 45.632420
1327 1 3.791952 -42.078740 47.415380
905 1 -58.388880 79.000020 106.426800
910 1 64.459240 77.462200 -8.942748
2617 1 3.934174 79.144180 -11.215818
3374 1 58.528280 75.507540 49.012700
2946 1 3.203436 19.658562 -14.694800
1325 1 58.687060 -96.575980 -14.830630
2044 1 123.042260 75.803000 -73.960880
680 1 10.314240 131.482080 -10.371904
942 1 69.973020 15.852364 43.573380
1426 1 66.655300 16.144594 -12.244046
936 1 8.274920 -39.308080 -13.571610
701 1 8.472732 79.338320 -10.295812
3762 1 7.245944 15.730644 -67.700800
2449 1 11.479998 19.546260 -11.904080
2411 1 -46.661600 76.163740 -9.322120
659 1 11.583052 19.615756 43.309880
445 1 60.145660 -30.562974 46.557220
824 1 58.502780 144.007340 -73.844600
2241 1 -0.184691 -30.938164 -8.718416
649 1 -52.723800 -35.722780 44.376800
1294 1 61.308800 -35.593240 44.853820
2590 1 118.238740 -34.880260 106.564840
2891 1 4.330206 25.283386 -69.906040
2613 1 123.394840 22.733658 49.789940
2159 1 6.146418 27.540442 45.435900
2828 1 120.764260 86.906380 -15.414750
451 1 9.420244 22.814748 43.510480
3940 1 7.457492 26.659230 49.655640
2255 1 128.787920 -35.144440 -10.321958
1302 1 -50.418260 -34.014620 105.242240
3145 1 11.619840 25.424418 44.943240
3651 1 64.136580 16.011518 53.406860
764 1 2.634572 18.970164 112.782760
2540 1 -56.019080 76.017880 -7.786408
3914 1 6.172122 18.832328 -3.305293
3171 1 58.241660 -100.290820 111.457440
2818 1 117.507060 19.146998 57.202280
1589 1 -52.756440 74.432800 -1.318945
2329 1 -104.604400 74.204660 56.640600
242 1 9.066202 73.988760 55.597140
3367 1 70.621400 -39.930280 112.189120
847 1 8.596458 18.591064 52.303900
34 1 -108.198540 79.759240 -62.781680
2205 1 11.835842 14.412770 52.041760
1390 1 128.628120 20.795284 109.454840
3676 1 64.846840 25.265298 171.561620
3421 1 119.082960 81.489840 -121.632620
2191 1 -57.575600 21.225588 50.991500
222 1 -55.743340 24.468882 -7.974938
3408 1 122.570000 -36.882180 -64.242320
3139 1 62.260460 25.531348 115.441220
3008 1 122.073940 -36.316760 56.596400
2399 1 -57.538880 26.839838 112.059920
341 1 116.574780 -32.289562 -2.738714
1775 1 -49.362220 24.009134 -7.499074
2029 1 -46.055380 -30.426022 54.121200
578 1 -46.371580 22.687146 114.380080
972 1 9.050392 86.874080 -6.027044
3294 1 69.134580 25.311674 -4.291242
192 1 12.946656 142.342700 -6.926922
786 1 8.836260 86.657160 -2.182066
1693 1 129.331920 25.908136 -59.467360
2117 1 -113.988060 31.441466 120.125060
1459 1 -58.142720 33.534948 -55.503300
2315 1 -52.427660 35.712580 -58.239280
387 1 -58.140680 30.063888 60.397600
606 1 61.115000 32.214864 6.134790
667 1 1.014251 92.070980 116.784560
73 1 65.272180 -25.750716 3.201148
2320 1 9.698976 149.062460 122.360900
722 1 70.880820 31.836444 119.678980
1112 1 67.157140 -27.297070 59.219840
1792 1 10.156412 35.316480 62.561020
3280 1 13.796860 146.610380 117.618240
2512 1 189.133500 94.223520 -56.929940
3887 1 12.999968 30.956762 64.699280
1209 1 -59.112740 37.579860 -113.556940
3825 1 -55.327860 94.879720 2.760698
2132 1 62.786440 39.507660 59.656400
2912 1 61.940860 97.498740 5.089494
521 1 -57.940760 98.036620 118.390040
594 1 3.502952 42.752960 121.409240
3612 1 58.780220 99.809380 4.849556
3186 1 123.876280 -18.089836 4.488034
2193 1 63.781960 -15.613854 59.632260
1128 1 71.670300 -16.902182 63.964880
3362 1 66.200380 37.322820 3.314170
2145 1 13.853640 42.918540 1.209064
946 1 -49.149380 -16.397758 6.067470
1182 1 -107.561720 36.441540 117.356780
3285 1 12.129704 39.367580 58.670060
1413 1 8.252004 40.360720 59.530940
1770 1 10.850352 39.351940 3.536000
3237 1 10.477712 -16.011994 2.392519
1479 1 4.609244 -23.961160 67.383580
3273 1 59.348360 152.951380 67.098660
1243 1 -58.474560 31.876734 68.529720
214 1 3.893000 -86.859460 9.739912
1281 1 5.795436 31.497804 13.852212
3364 1 7.102634 33.517744 128.534960
2380 1 69.717680 32.137276 8.819158
496 1 10.962212 -23.121598 10.799182
1473 1 69.633020 -30.082316 8.114644
3831 1 8.917384 152.080640 -51.469200
3706 1 6.823188 148.962840 65.897780
1576 1 10.185924 90.990800 70.910400
1201 1 7.421418 30.204580 69.195440
3624 1 72.139160 34.771800 7.250976
908 1 64.536080 97.440940 130.704500
3846 1 0.145457 97.716340 -50.497480
443 1 -111.340140 40.414100 68.463760
2536 1 61.350280 -18.385942 -46.876140
3293 1 0.130330 -21.070480 11.295480
2400 1 3.420944 -20.664078 67.565140
16 1 -55.444140 36.025380 -46.085640
305 1 64.950880 96.172740 124.100680
3038 1 61.717480 42.261320 8.234494
3180 1 66.345900 37.203140 68.830620
3784 1 9.257350 40.013240 11.540246
3839 1 -47.848540 37.902180 66.965040
1539 1 66.736560 94.974240 72.348940
2229 1 70.051220 37.512200 72.291820
626 1 12.736604 41.208000 8.722768
3870 1 71.374500 40.241040 71.102160
2297 1 3.919452 -28.533038 138.338860
1800 1 61.310160 -23.648054 -39.225120
2101 1 -53.138940 35.775820 75.068260
3489 1 64.243000 -28.633746 17.026554
1629 1 1.481564 -27.597358 135.830000
3157 1 60.679120 -87.970240 15.210308
2847 1 58.006040 -85.683740 -42.995040
2856 1 2.773686 92.211740 74.519160
2494 1 65.233760 -25.652864 18.337322
3735 1 129.651860 29.344414 76.934180
3858 1 126.449740 153.198900 19.601782
1480 1 183.857380 30.870300 79.843900
2316 1 71.543140 -24.197494 14.399136
2922 1 68.222700 -24.646838 74.812580
3863 1 185.073220 89.394840 75.513320
2854 1 129.978940 -81.986580 -39.520920
1403 1 12.403098 31.093510 14.992912
795 1 -0.336165 41.896500 17.197132
1566 1 -55.598840 -79.052040 132.833580
1820 1 58.851620 -22.143860 -159.380780
2607 1 61.910260 -16.328908 -41.285860
106 1 1.965972 -19.631294 18.837122
2077 1 64.056000 -80.071360 19.492200
3503 1 64.772720 -18.478048 16.622736
3666 1 122.727420 40.885000 79.102020
213 1 58.797560 98.384440 -44.551900
1360 1 -49.364600 37.745100 16.823608
2614 1 12.403744 158.408720 19.444362
1740 1 -107.963600 97.740140 20.386468
2346 1 71.693080 37.943660 75.697600
3523 1 11.063872 40.770420 15.437666
29 1 8.450836 -75.118240 18.591030
25 1 -50.431520 -16.245778 -44.663080
2459 1 62.787460 31.939668 -33.356278
3918 1 123.495140 34.438940 -37.265360
3696 1 117.549560 89.597820 21.985692
3785 1 2.470284 152.510060 23.219892
2510 1 58.973340 30.048010 26.056206
1614 1 0.427975 150.501680 86.993760
2682 1 3.140339 30.275572 28.201266
1289 1 62.933320 28.604540 24.201948
1441 1 69.161440 33.954032 -36.540140
1571 1 7.290212 -25.928162 82.920900
382 1 69.875780 146.781060 22.442618
1371 1 10.226656 32.510426 -32.755362
2620 1 65.462580 88.794740 26.728624
527 1 -103.542580 -24.097330 -36.287180
3014 1 0.543354 -21.747318 -91.513720
2993 1 62.569520 41.555480 142.331140
610 1 -58.372560 40.670120 -32.834956
2683 1 4.960566 37.538040 143.222960
3436 1 119.207400 -134.181000 80.495340
516 1 61.990160 -20.114944 22.491884
2955 1 2.732631 98.734980 87.080800
1733 1 -0.198847 -21.469504 138.786300
439 1 70.770320 94.777040 84.310480
476 1 -110.342240 97.335880 22.883190
30 1 10.174228 -19.522732 85.202640
3209 1 66.164680 41.501420 -91.765320
3875 1 71.112020 38.562460 -94.530200
15 1 12.901572 -17.760648 25.314122
2880 1 8.578642 35.995800 84.119740
1527 1 10.002494 41.158020 23.264432
2996 1 119.125460 88.177300 93.086220
3162 1 61.841240 33.527060 33.696754
2463 1 -53.267120 -28.502132 94.164700
1949 1 58.509920 34.696320 149.452100
501 1 64.309640 88.046400 32.214932
3327 1 177.275320 31.272622 -27.337224
2884 1 238.239360 150.966800 -28.365826
2569 1 -52.383460 -82.302100 28.854372
3115 1 124.622580 33.169244 90.816040
1713 1 11.824588 -28.760634 -26.702410
1555 1 8.368148 87.330020 89.129300
287 1 12.938258 -25.133616 30.740080
2307 1 9.386380 -27.757702 35.254940
2954 1 -48.636320 32.229144 -29.102436
2785 1 10.280342 34.352580 92.922680
1710 1 -48.342220 -22.967034 87.865520
479 1 72.166700 93.924320 -23.143970
674 1 58.793820 38.127940 34.257720
2381 1 60.398620 36.423520 146.305740
465 1 5.979478 -76.104920 -86.425280
3088 1 120.750320 -17.820284 34.109480
2495 1 4.936494 -79.439980 31.935248
3103 1 58.616340 -75.883240 91.405940
3106 1 -113.959840 -21.410888 94.098400
3526 1 11.988162 -78.018440 88.426860
2906 1 6.703984 -19.041156 34.343060
3598 1 70.558500 95.518240 32.250258
3686 1 67.021820 101.127560 -88.516280
3053 1 -49.294220 -17.066300 -26.311954
2666 1 -50.287700 95.151720 32.395642
1498 1 13.514660 42.661500 28.732550
3713 1 66.252400 97.250200 -29.929078
924 1 68.962200 -20.598968 35.606160
3584 1 10.543706 42.289200 35.792140
377 1 131.229120 95.226520 87.322540
2410 1 182.135620 32.908396 -19.821286
3885 1 61.434940 91.778580 -78.678040
3419 1 62.930940 91.155700 -16.659184
1947 1 -58.584720 91.700040 -22.505280
3452 1 117.497880 29.457260 37.849820
399 1 0.478866 88.710080 -17.222326
2626 1 62.958480 146.964660 98.394980
3063 1 12.370152 35.389240 -75.452800
3417 1 71.499280 -27.136658 37.165060
1258 1 8.329728 30.000512 -78.655600
3872 1 70.694500 -26.836030 40.858480
318 1 -48.599600 92.492580 38.099040
2153 1 183.557840 30.354044 -15.718982
3420 1 6.647034 94.498920 -80.867300
3101 1 67.026240 -24.942638 42.076360
227 1 5.982436 -80.802360 40.151280
24 1 122.349340 42.158640 -20.934548
146 1 -57.079540 -22.409842 97.786720
602 1 120.862520 37.046740 -74.429740
3269 1 176.057780 -22.416982 42.464300
2243 1 60.298660 41.264780 -15.771852
1537 1 3.832480 39.561380 -76.897800
3546 1 5.380330 42.995720 41.470480
3308 1 60.458120 39.725940 -79.916320
3670 1 60.763440 101.223780 -19.382856
903 1 58.035960 -19.323050 -18.137504
3071 1 -107.296860 37.403400 156.578500
2615 1 66.089540 157.157520 -19.805510
185 1 -48.030780 -19.006714 -16.177574
342 1 11.533990 -17.635902 38.832420
752 1 8.471134 -15.660162 -19.585326
2851 1 13.539038 96.724560 97.823780
1424 1 5.368396 33.642592 -68.732360
3310 1 116.616940 -23.382412 -8.719402
3731 1 64.986580 34.570180 45.289700
2409 1 118.080300 -26.937588 -13.533632
861 1 4.516424 148.544640 45.588900
2803 1 -57.248180 150.137880 48.295640
99 1 4.635390 29.064662 -8.430232
3553 1 1.024770 35.135600 104.132820
1603 1 11.735372 28.598148 108.124760
2279 1 7.779336 31.632206 105.238160
2888 1 10.814380 -29.746702 43.822260
3572 1 11.551500 -26.342622 103.294720
2951 1 9.753682 -23.241074 163.073860
2047 1 10.867148 -24.854408 107.363160
1002 1 66.692700 89.217360 -8.725046
325 1 13.809644 -27.980640 105.864440
221 1 5.417458 99.290880 43.897400
1744 1 3.523760 36.553740 106.562120
208 1 -0.058173 41.789060 -70.619700
871 1 5.640838 39.990800 -11.237986
1081 1 60.829060 39.202000 -12.790052
2710 1 58.365080 -20.219188 48.287480
1938 1 6.172190 42.978720 163.412840
3881 1 129.543400 41.419820 106.191180
1745 1 7.689032 37.510160 43.253440
1433 1 66.236760 -22.006432 -10.640640
1386 1 -49.500600 39.932660 46.303580
618 1 67.448860 99.254840 108.523240
2873 1 70.186880 154.529320 49.175560
3603 1 8.929590 -16.296030 -15.271236
1544 1 118.754180 -29.249588 -3.002098
3866 1 -114.689820 -24.826358 51.690200
2984 1 64.141680 28.738194 54.242920
55 1 6.407368 34.525640 52.130500
1910 1 -0.176343 92.159720 -4.637872
1491 1 60.357820 30.154022 -6.672738
3190 1 123.335340 32.867800 56.771160
660 1 181.232240 87.766240 -0.835067
430 1 -49.077640 -24.556738 -2.554869
1956 1 -48.486040 151.360860 52.278740
3807 1 67.348900 -27.690076 -62.719800
2199 1 70.171240 31.439290 57.248860
3389 1 4.249422 41.519780 -64.364040
533 1 -117.294560 101.157480 53.819960
3800 1 60.781460 39.144200 -4.046612
3743 1 3.445424 95.053800 -1.916794
3132 1 60.922560 -16.753602 57.487200
1703 1 2.277939 -21.406910 109.826120
3004 1 -53.142000 -17.222496 -2.393726
1847 1 5.211452 -20.934106 53.877760
138 1 -0.126952 -22.305632 115.236880
3239 1 6.116736 -19.760732 109.269880
690 1 -116.597560 99.552680 109.274300
3955 1 -50.269340 -17.505410 53.779840
164 1 -104.371840 -78.834440 -6.700482
2326 1 -51.797980 96.944540 56.944560
643 1 10.105854 38.490720 55.509420
2129 1 -103.647300 41.703380 113.148940
2448 1 12.819870 -22.660252 -60.861700
301 1 12.029846 42.277980 51.312120
1355 1 69.260040 42.285460 -1.368935
1613 1 126.230440 37.031440 -6.669882
2889 1 -55.570280 105.541100 117.704260
1370 1 0.711987 44.066380 1.950801
1093 1 61.524360 -12.512204 -53.026400
3485 1 122.993300 104.829140 61.540340
785 1 3.419142 49.165700 3.518524
2478 1 58.387180 47.830180 2.756074
204 1 5.841540 -15.025756 6.548570
1751 1 6.548468 47.484400 64.781560
2423 1 13.267276 -8.853872 3.593936
2105 1 67.573980 -72.078640 62.957120
1917 1 10.912368 107.729680 118.385620
637 1 -50.734120 48.772660 2.969676
1643 1 9.174764 104.314040 0.411397
2801 1 129.533880 46.051980 61.445480
1734 1 127.488100 107.133660 64.670040
1130 1 62.752780 56.963940 4.421088
3967 1 -53.625140 109.408940 59.334760
3201 1 6.086102 54.353420 -58.301840
2190 1 0.970826 -4.173670 63.132560
1717 1 0.254136 52.284520 1.812880
1220 1 4.276316 52.646960 -55.371380
373 1 60.307160 50.880660 123.110600
3639 1 70.814860 52.061480 -57.560980
2032 1 -52.033600 -124.767080 6.148526
3842 1 8.626378 52.571820 61.384620
3554 1 13.133350 113.342400 3.707632
590 1 11.644082 -0.913971 2.819916
3906 1 8.294198 56.199960 61.685520
1984 1 67.762680 51.512720 57.936000
2627 1 183.151540 -2.549952 65.010040
3605 1 -112.894620 45.277800 -49.313940
306 1 -56.061920 -11.384832 70.782900
1435 1 118.402620 47.355880 67.585880
1131 1 0.448780 -14.685586 70.146420